 +-------------------------------------------------+
 |                                                 |
 |      CCC   AA    SSS  TTTTT  EEEEE  PPPP        |
 |     C     A  A  S       T    E      P   P       |
 |     C     AAAA   SS     T    EEE    PPPP        |
 |     C     A  A     S    T    E      P           |
 |      CCC  A  A  SSS     T    EEEEE  P           |
 |                                                 |
 +-------------------------------------------------+
 |                                                 |
 | Welcome to Academic Release CASTEP version 24.1 |
 | Ab Initio Total Energy Program                  |
 |                                                 |
 | Authors:                                        |
 | M. Segall, M. Probert, C. Pickard, P. Hasnip,   |
 | S. Clark, K. Refson, J. R. Yates,               |
 | A. Bartok-Partay, M. Payne                      |
 |                                                 |
 | Contributors:                                   |
 | P. Lindan, P. Haynes, J. White, V. Milman,      |
 | N. Govind, M. Gibson, P. Tulip, V. Cocula,      |
 | B. Montanari, D. Quigley, M. Glover,            |
 | L. Bernasconi, A. Perlov, M. Plummer,           |
 | E. McNellis, J. Meyer, J. Gale, D. Jochym       |
 | J. Aarons, B. Walker, R. Gillen, D. Jones       |
 | T. Green, I. J. Bush, C. J. Armstrong,          |
 | E. J. Higgins, E. L. Brown, M. S. McFly,        |
 | J. Wilkins, B-C. Shih, P. J. P. Byrne,          |
 | R. J. Maurer, J. C. Womack, J. Dziedzic,        |
 | L. LeBlanc, T. K. Stenczel, J. Kermode,         |
 | S. Sturniolo, B. Shi, B. Durham, M. Evans,      |
 | M. J. Smith, A. Tamerus, Z. Hawkhead,           |
 | V. Ravindran, T. Hollins, S. A. Joyce,          |
 | R. T. Strong, A. M. Reilly, S. J. Donaldson     |
 |                                                 |
 | Copyright (c) 2000 - 2023                       |
 |                                                 |
 |     Distributed under license from Cambridge    |
 |     Enterprise for academic use only.           |
 |                                                 |
 | Please cite                                     |
 |                                                 |
 |     "First principles methods using CASTEP"     |
 |                                                 |
 |         Zeitschrift fuer Kristallographie       |
 |           220(5-6) pp. 567-570 (2005)           |
 |                                                 |
 | S. J. Clark, M. D. Segall, C. J. Pickard,       |
 | P. J. Hasnip, M. J. Probert, K. Refson,         |
 | M. C. Payne                                     |
 |                                                 |
 |       in all publications arising from          |
 |              your use of CASTEP                 |
 |                                                 |
 +-------------------------------------------------+
 |                                                 |
 |              http://www.castep.org              |
 |                                                 |
 +-------------------------------------------------+



 Compiled for linux_aarch64_gfortran10 on Fri, 16 Aug 2024 11:53:06 +0000
 from code version 6355fd106  Castep241_branch  Thu Mar 7 17:56:19 2024 +0000
 Compiler: GNU Fortran 10.2.1; Optimisation: fast
 Comms   : serial
 MATHLIBS: default (LAPACK version 3.9.0)
 FFT Lib : default
 Fundamental constants values: CODATA 2018

 Run started: Fri, 16 Aug 2024 15:41:43 +0000

 Atomic calculation performed for Cu: 1s2 2s2 2p6 3s2 3p6 3d10 4s1

 Converged in 143 iterations to an ae energy of -45030.712 eV

   ============================================================                
   | Pseudopotential Report - Date of generation 16-08-2024   |                
   ------------------------------------------------------------                
   | Element: Cu Ionic charge: 11.00 Level of theory: PBE     |                
   | Atomic Solver: Koelling-Harmon                           |                
   |                                                          |                
   |               Reference Electronic Structure             |                
   |         Orbital         Occupation         Energy        |                
   |            3d             10.000           -0.185        |                
   |            4s              1.000           -0.169        |                
   |                                                          |                
   |                 Pseudopotential Definition               |                
   |        Beta     l      e      Rc     scheme   norm       |                
   |          1      0   -0.169   1.996     qc      0         |                
   |          2      0    0.250   1.996     qc      0         |                
   |          3      1    0.000   1.996     qc      0         |                
   |          4      1    0.250   1.996     qc      0         |                
   |          5      2   -0.185   1.996     qc      0         |                
   |          6      2    0.250   1.996     qc      0         |                
   |         loc     3    0.000   2.206     pn      0         |                
   |                                                          |                
   | Augmentation charge Rinner = 0.999                       |                
   | Partial core correction Rc = 0.999                       |                
   ------------------------------------------------------------                
   | "3|2.2|2.0|1.0|10|12|13|40:41:32(qc=6)"                  |                
   ------------------------------------------------------------                
   |      Author: Chris J. Pickard, Cambridge University      |                
   ============================================================                

 Pseudo atomic calculation performed for Cu 3d10 4s1

 Converged in 48 iterations to a total energy of -1676.3539 eV
 Calculation not parallelised.

 ************************************ Title ************************************
 

 ***************************** General Parameters ******************************
  
 output verbosity                               : normal  (1)
 write checkpoint data to                       : bulk_cu_5x5x5-000000.check
 type of calculation                            : geometry optimization
 stress calculation                             : off
 density difference calculation                 : off
 electron localisation func (ELF) calculation   : off
 Hirshfeld analysis                             : off
 polarisation (Berry phase) analysis            : off
 molecular orbital projected DOS                : off
 deltaSCF calculation                           : off
 unlimited duration calculation
 timing information                             : on
 memory usage estimate                          : on
 write extra output files                       : on
 write final potential to formatted file        : off
 write final density to formatted file          : off
 write BibTeX reference list                    : on
 write OTFG pseudopotential files               : on
 write electrostatic potential file             : on
 write bands file                               : on
 checkpoint writing                             : both castep_bin and check files
  
 output         length unit                     : A
 output           mass unit                     : amu
 output           time unit                     : ps
 output         charge unit                     : e
 output           spin unit                     : hbar/2
 output         energy unit                     : eV
 output          force unit                     : eV/A
 output       velocity unit                     : A/ps
 output       pressure unit                     : GPa
 output     inv_length unit                     : 1/A
 output      frequency unit                     : cm-1
 output force constant unit                     : eV/A**2
 output         volume unit                     : A**3
 output   IR intensity unit                     : (D/A)**2/amu
 output         dipole unit                     : D
 output         efield unit                     : eV/A/e
 output        entropy unit                     : J/mol/K
 output    efield chi2 unit                     : pm/V
  
 wavefunctions paging                           : none
 random number generator seed                   :  154143668
 data distribution                              : optimal for this architecture
 optimization strategy                          : balance speed and memory

 *********************** Exchange-Correlation Parameters ***********************
  
 using functional                               : Perdew Burke Ernzerhof
 relativistic treatment                         : Koelling-Harmon
 DFT+D: Semi-empirical dispersion correction    : off

 ************************* Pseudopotential Parameters **************************
  
 pseudopotential representation                 : reciprocal space
 <beta|phi> representation                      : reciprocal space
 spin-orbit coupling                            : off

 **************************** Basis Set Parameters *****************************
  
 plane wave basis set cut-off                   :   340.0000   eV
 size of standard grid                          :     1.7500
 size of   fine   gmax                          :    16.5316   1/A
 finite basis set correction                    : automatic
 number of sample energies                      :          3
           sample  spacing                      :     5.0000   eV

 **************************** Electronic Parameters ****************************
  
 number of  electrons                           :  11.00    
 net charge of system                           :  0.000    
 net spin   of system                           :  1.000    
 number of  up  spins                           :  6.000    
 number of down spins                           :  5.000    
 treating system as spin-polarized
 number of bands                                :         10

 ********************* Electronic Minimization Parameters **********************
  
 Method: Treating system as metallic with density mixing treatment of electrons,
         and number of  SD  steps               :          1
         and number of  CG  steps               :          4
  
 total energy / atom convergence tol.           : 0.1000E-04   eV
 eigen-energy convergence tolerance             : 0.1000E-05   eV
 max force / atom convergence tol.              : ignored
 convergence tolerance window                   :          3   cycles
 max. number of SCF cycles                      :         30
 number of fixed-spin iterations                :         10
 smearing scheme                                : Gaussian
 smearing width                                 : 0.2000       eV
 Fermi energy convergence tolerance             : 0.2721E-13   eV
 periodic dipole correction                     : NONE

 ************************** Density Mixing Parameters **************************
  
 density-mixing scheme                          : Broyden
 max. length of mixing history                  :         20
 charge density mixing amplitude                : 0.8000    
   spin density mixing amplitude                :  2.000    
 cut-off energy for mixing                      :  340.0       eV

 *********************** Population Analysis Parameters ************************
  
 Population analysis with cutoff                :  3.000       A
 Population analysis output                     : summary and pdos components

 ********************** Geometry Optimization Parameters ***********************
  
 optimization method                            : LBFGS
 max. no. of LBFGS updates                      : unbounded
 variable cell method                           : fixed basis quality
 max. number of steps                           :         30
 estimated bulk modulus                         :  500.0       GPa
 estimated <frequency>                          :  1668.       cm-1
 geom line minimiser                            : on
 with line minimiser tolerance                  :     0.4000
  with spin fully able to relax for all steps
 total energy convergence tolerance             : 0.2000E-04   eV/atom
        max ionic |force| tolerance             : 0.5000E-01   eV/A
 max ionic |displacement| tolerance             : 0.1000E-02   A
   max |stress component| tolerance             : 0.1000       GPa
 convergence tolerance window                   :          2   steps
 backup results every                           :          5   steps
 write geom trajectory file                     : on

 *******************************************************************************
  

                           -------------------------------
                                      Unit Cell
                           -------------------------------
        Real Lattice(A)                      Reciprocal Lattice(1/A)
     0.0000000     1.8075000     1.8075000       -1.738087222   1.738087222   1.738087222
     1.8075000     0.0000000     1.8075000        1.738087222  -1.738087222   1.738087222
     1.8075000     1.8075000     0.0000000        1.738087222   1.738087222  -1.738087222

                       Lattice parameters(A)       Cell Angles
                    a =      2.556191          alpha =   60.000000
                    b =      2.556191          beta  =   60.000000
                    c =      2.556191          gamma =   60.000000

                       Current cell volume =            11.810408       A**3
                                   density =             5.380508   AMU/A**3
                                           =             8.934544     g/cm^3

                           -------------------------------
                                     Cell Contents
                           -------------------------------
                         Total number of ions in cell =    1
                      Total number of species in cell =    1
                        Max number of any one species =    1

            xxxxxxxxxxxxxxxxxxxxxxxxxxxxxxxxxxxxxxxxxxxxxxxxxxxxxxxxxxxx
            x  Element    Atom        Fractional coordinates of atoms  x
            x            Number           u          v          w      x
            x----------------------------------------------------------x
            x  Cu           1         0.000000   0.000000   0.000000   x 
            xxxxxxxxxxxxxxxxxxxxxxxxxxxxxxxxxxxxxxxxxxxxxxxxxxxxxxxxxxxx


                         No user defined ionic velocities

                           -------------------------------
                                   Details of Species
                           -------------------------------

                               Mass of species in AMU
                                    Cu   63.5460000

                          Electric Quadrupole Moment (Barn)
                                    Cu   -0.2200000 Isotope 63

                          Files used for pseudopotentials:
                                    Cu 3|2.2|2.0|1.0|10|12|13|40:41:32(qc=6)

                           -------------------------------
                              k-Points For BZ Sampling
                           -------------------------------
                       MP grid size for SCF calculation is  5  5  5
                            with an offset of   0.000  0.000  0.000
                       Number of kpoints used =            63

                           -------------------------------
                               Symmetry and Constraints
                           -------------------------------

                      Maximum deviation from symmetry =  0.00000         ANG

                      Number of symmetry operations   =           1
                      Number of ionic constraints     =           3
                      Point group of crystal =     1: C1, 1, 1
                      Space group of crystal =   225: Fm-3m, -F 4 2 3

             Set iprint > 1 for details on symmetry rotations/translations

                         Centre of mass is constrained
             Set iprint > 1 for details of linear ionic constraints

                         Number of cell constraints= 0
                         Cell constraints are:  1 2 3 4 5 6

                         External pressure/stress (GPa)
                          0.00000   0.00000   0.00000
                                    0.00000   0.00000
                                              0.00000
 
+---------------- MEMORY AND SCRATCH DISK ESTIMATES PER PROCESS --------------+
|                                                     Memory          Disk    |
| Baseline code, static data and system overhead      357.0 MB         0.0 MB |
| BLAS internal memory storage                          0.0 MB         0.0 MB |
| Model and support data                               93.8 MB         0.0 MB |
| Electronic energy minimisation requirements           8.6 MB         0.0 MB |
| Force calculation requirements                        0.7 MB         0.0 MB |
|                                               ----------------------------- |
| Approx. total storage required per process          459.4 MB         0.0 MB |
|                                                                             |
| Requirements will fluctuate during execution and may exceed these estimates |
+-----------------------------------------------------------------------------+
Calculating finite basis set correction with  3 cut-off energies.
Calculating total energy with cut-off of  330.000 eV.
Calculating approximate eigenstates for fixed initial Hamiltonian
Cut-off for approx. calculation is  159.419 eV
Resetting cut-off to  330.059 eV
------------------------------------------------------------------------ <-- SCF
SCF loop      Energy           Fermi           Energy gain       Timer   <-- SCF
                               energy          per atom          (sec)   <-- SCF
------------------------------------------------------------------------ <-- SCF
Initial  -1.73394014E+003  0.00000000E+000                         5.56  <-- SCF
      1  -1.67804563E+003  3.89329306E+000  -5.58945055E+001       6.31  <-- SCF
      2  -1.68081257E+003  3.78481061E+000   2.76693551E+000       7.18  <-- SCF
      3  -1.68081315E+003  3.78478174E+000   5.80561907E-004       7.86  <-- SCF
      4  -1.68478862E+003  9.67484947E+000   3.97546947E+000       8.45  <-- SCF
      5  -1.68479428E+003  9.67501604E+000   5.66167012E-003       8.93  <-- SCF
      6  -1.67876741E+003  5.39679014E+000  -6.02686390E+000       9.83  <-- SCF
      7  -1.67876918E+003  5.39684404E+000   1.76558784E-003      10.25  <-- SCF
      8  -1.67901986E+003  5.69111823E+000   2.50683991E-001      10.99  <-- SCF
      9  -1.67901743E+003  5.62086117E+000  -2.43426499E-003      11.63  <-- SCF
     10  -1.68050082E+003  4.17025346E+000   1.48339360E+000      12.24  <-- SCF
     11  -1.68060408E+003  4.88547639E+000   1.03252408E-001      12.84  <-- SCF
     12  -1.68056988E+003  4.03751774E+000  -3.41967954E-002      13.40  <-- SCF
     13  -1.68057821E+003  4.09869167E+000   8.33218858E-003      14.21  <-- SCF
     14  -1.68059444E+003  4.06925813E+000   1.62259966E-002      14.99  <-- SCF
     15  -1.68059480E+003  4.07308976E+000   3.57942087E-004      15.69  <-- SCF
     16  -1.68059480E+003  4.07370430E+000   1.56129497E-006      16.47  <-- SCF
     17  -1.68059484E+003  4.07377472E+000   4.62914893E-005      16.84  <-- SCF
     18  -1.68059484E+003  4.07382934E+000   7.77551492E-007      17.31  <-- SCF
     19  -1.68059484E+003  4.07384415E+000   5.04247161E-008      17.66  <-- SCF
------------------------------------------------------------------------ <-- SCF
 
Integrated Spin Density     =    0.111061E-04 hbar/2
Integrated |Spin Density|   =    0.163220E-04 hbar/2
 
Final energy, E             =  -1680.589545116     eV
Final free energy (E-TS)    =  -1680.594843889     eV
(energies not corrected for finite basis set)
 
NB est. 0K energy (E-0.5TS)      =  -1680.592194502     eV
 
Calculating total energy with cut-off of  335.000 eV.
------------------------------------------------------------------------ <-- SCF
SCF loop      Energy           Fermi           Energy gain       Timer   <-- SCF
                               energy          per atom          (sec)   <-- SCF
------------------------------------------------------------------------ <-- SCF
Initial  -1.68058955E+003  0.00000000E+000                        17.80  <-- SCF
      1  -1.68063398E+003  4.07382978E+000   4.44300361E-002      18.23  <-- SCF
      2  -1.68063399E+003  4.07382978E+000   1.47281153E-005      18.86  <-- SCF
      3  -1.68063406E+003  4.08084140E+000   7.18926544E-005      19.61  <-- SCF
      4  -1.68063398E+003  4.07488715E+000  -8.58615220E-005      20.15  <-- SCF
      5  -1.68063398E+003  4.07486445E+000   2.74088592E-006      20.50  <-- SCF
      6  -1.68063398E+003  4.07472587E+000   9.44874922E-009      20.90  <-- SCF
------------------------------------------------------------------------ <-- SCF
 
Integrated Spin Density     =    0.290424E-05 hbar/2
Integrated |Spin Density|   =    0.539286E-05 hbar/2
 
Final energy, E             =  -1680.628679728     eV
Final free energy (E-TS)    =  -1680.633978733     eV
(energies not corrected for finite basis set)
 
NB est. 0K energy (E-0.5TS)      =  -1680.631329230     eV
 
Calculating total energy with cut-off of  340.000 eV.
------------------------------------------------------------------------ <-- SCF
SCF loop      Energy           Fermi           Energy gain       Timer   <-- SCF
                               energy          per atom          (sec)   <-- SCF
------------------------------------------------------------------------ <-- SCF
Initial  -1.68062868E+003  0.00000000E+000                        21.01  <-- SCF
      1  -1.68069726E+003  4.07427564E+000   6.85836140E-002      21.45  <-- SCF
      2  -1.68069729E+003  4.07427548E+000   2.53049521E-005      21.91  <-- SCF
      3  -1.68069743E+003  4.08316321E+000   1.38222917E-004      22.58  <-- SCF
      4  -1.68069727E+003  4.07505488E+000  -1.56283339E-004      23.33  <-- SCF
      5  -1.68069728E+003  4.07495032E+000   5.11347131E-006      23.76  <-- SCF
      6  -1.68069728E+003  4.07473214E+000   2.17151665E-008      24.20  <-- SCF
------------------------------------------------------------------------ <-- SCF
 
Integrated Spin Density     =   -0.451876E-07 hbar/2
Integrated |Spin Density|   =    0.936647E-07 hbar/2
 
Final energy, E             =  -1680.691977064     eV
Final free energy (E-TS)    =  -1680.697275721     eV
(energies not corrected for finite basis set)
 
NB est. 0K energy (E-0.5TS)      =  -1680.694626393     eV
 
 For future reference: finite basis dEtot/dlog(Ecut) =      -4.086507eV
 Total energy corrected for finite basis set =   -1680.716135 eV
 
+---------------- MEMORY AND SCRATCH DISK ESTIMATES PER PROCESS --------------+
|                                                     Memory          Disk    |
| Model and support data                              104.9 MB         0.0 MB |
| Electronic energy minimisation requirements           8.6 MB         0.0 MB |
| Geometry minimisation requirements                   12.4 MB         0.0 MB |
|                                               ----------------------------- |
| Approx. total storage required per process          125.9 MB         0.0 MB |
|                                                                             |
| Requirements will fluctuate during execution and may exceed these estimates |
+-----------------------------------------------------------------------------+
 

 ***************** Stress Tensor *****************
 *                                               *
 *          Cartesian components (GPa)           *
 * --------------------------------------------- *
 *             x             y             z     *
 *                                               *
 *  x     -4.895328     -0.009609     -0.009609  *
 *  y     -0.009609     -4.895328     -0.009609  *
 *  z     -0.009609     -0.009609     -4.895328  *
 *                                               *
 *  Pressure:    4.8953                          *
 *                                               *
 *************************************************
 LBFGS: finished iteration     0 with enthalpy= -1.68071614E+003 eV
  
 +-----------+-----------------+-----------------+------------+-----+ <-- LBFGS
 | Parameter |      value      |    tolerance    |    units   | OK? | <-- LBFGS
 +-----------+-----------------+-----------------+------------+-----+ <-- LBFGS
 |  dE/ion   |   0.000000E+000 |   2.000000E-005 |         eV | No  | <-- LBFGS
 |   Smax    |   4.895328E+000 |   1.000000E-001 |        GPa | No  | <-- LBFGS
 +-----------+-----------------+-----------------+------------+-----+ <-- LBFGS
  

================================================================================
 Starting LBFGS iteration          1 ...
================================================================================
  
 +------------+-------------+-------------+-----------------+ <-- min LBFGS
 |    Step    |   lambda    |   F.delta'  |    enthalpy     | <-- min LBFGS
 +------------+-------------+-------------+-----------------+ <-- min LBFGS
 |  previous  |    0.000000 |    0.022969 |    -1680.716135 | <-- min LBFGS
 +------------+-------------+-------------+-----------------+ <-- min LBFGS
  

--------------------------------------------------------------------------------
 LBFGS: starting iteration         1 with trial guess (lambda=  1.000000)
--------------------------------------------------------------------------------

                           -------------------------------
                                      Unit Cell
                           -------------------------------
        Real Lattice(A)              Reciprocal Lattice(1/A)
     0.0000232     1.8134104     1.8134104       -1.732455460   1.732433336   1.732433336
     1.8134104     0.0000232     1.8134104        1.732433336  -1.732455460   1.732433336
     1.8134104     1.8134104     0.0000232        1.732433336   1.732433336  -1.732455460

                       Lattice parameters(A)       Cell Angles
                    a =      2.564550          alpha =   59.999155
                    b =      2.564550          beta  =   59.999155
                    c =      2.564550          gamma =   59.999155

                Current cell volume =            11.926418 A**3
                            density =             5.328172 amu/A**3
                                    =             8.847637 g/cm^3

------------------------------------------------------------------------ <-- SCF
SCF loop      Energy           Fermi           Energy gain       Timer   <-- SCF
                               energy          per atom          (sec)   <-- SCF
------------------------------------------------------------------------ <-- SCF
Initial  -1.68064592E+003  0.00000000E+000                        24.45  <-- SCF
      1  -1.68076949E+003  3.85391774E+000   1.23572439E-001      25.78  <-- SCF
      2  -1.68076953E+003  3.85391702E+000   3.60898276E-005      26.80  <-- SCF
      3  -1.68091230E+003  4.43649644E+000   1.42777781E-001      27.93  <-- SCF
      4  -1.68070009E+003  3.97347273E+000  -2.12209612E-001      28.74  <-- SCF
      5  -1.68070842E+003  3.99627017E+000   8.32198635E-003      29.45  <-- SCF
      6  -1.68070842E+003  3.99582195E+000   1.57304128E-006      29.97  <-- SCF
      7  -1.68070842E+003  3.99589514E+000   9.86790949E-008      30.39  <-- SCF
      8  -1.68070842E+003  3.99589178E+000   5.78518131E-009      30.89  <-- SCF
------------------------------------------------------------------------ <-- SCF
 
Integrated Spin Density     =   -0.742311E-09 hbar/2
Integrated |Spin Density|   =    0.186186E-08 hbar/2
 
Final energy, E             =  -1680.703118546     eV
Final free energy (E-TS)    =  -1680.708417122     eV
(energies not corrected for finite basis set)
 
NB est. 0K energy (E-0.5TS)      =  -1680.705767834     eV
 

 ***************** Stress Tensor *****************
 *                                               *
 *          Cartesian components (GPa)           *
 * --------------------------------------------- *
 *             x             y             z     *
 *                                               *
 *  x     -4.350404     -0.006639     -0.006639  *
 *  y     -0.006639     -4.350404     -0.006639  *
 *  z     -0.006639     -0.006639     -4.350404  *
 *                                               *
 *  Pressure:    4.3504                          *
 *                                               *
 *************************************************
  
 +------------+-------------+-------------+-----------------+ <-- min LBFGS
 |    Step    |   lambda    |   F.delta'  |    enthalpy     | <-- min LBFGS
 +------------+-------------+-------------+-----------------+ <-- min LBFGS
 |  previous  |    0.000000 |    0.022969 |    -1680.716135 | <-- min LBFGS
 | trial step |    1.000000 |    0.020546 |    -1680.713257 | <-- min LBFGS
 +------------+-------------+-------------+-----------------+ <-- min LBFGS
  

--------------------------------------------------------------------------------
 LBFGS: improving iteration         1 with line minimization (lambda=  9.478067)
--------------------------------------------------------------------------------
 
+---------------- MEMORY AND SCRATCH DISK ESTIMATES PER PROCESS --------------+
|                                                     Memory          Disk    |
| Model and support data                              105.6 MB         0.0 MB |
| Electronic energy minimisation requirements           9.5 MB         0.0 MB |
| Geometry minimisation requirements                   13.8 MB         0.0 MB |
|                                               ----------------------------- |
| Approx. total storage required per process          128.8 MB         0.0 MB |
|                                                                             |
| Requirements will fluctuate during execution and may exceed these estimates |
+-----------------------------------------------------------------------------+
 

                           -------------------------------
                                      Unit Cell
                           -------------------------------
        Real Lattice(A)              Reciprocal Lattice(1/A)
     0.0002195     1.8635196     1.8635196       -1.686136113   1.685937537   1.685937537
     1.8635196     0.0002195     1.8635196        1.685937537  -1.686136113   1.685937537
     1.8635196     1.8635196     0.0002195        1.685937537   1.685937537  -1.686136113

                       Lattice parameters(A)       Cell Angles
                    a =      2.635415          alpha =   59.992207
                    b =      2.635415          beta  =   59.992207
                    c =      2.635415          gamma =   59.992207

                Current cell volume =            12.940623 A**3
                            density =             4.910583 amu/A**3
                                    =             8.154215 g/cm^3

------------------------------------------------------------------------ <-- SCF
SCF loop      Energy           Fermi           Energy gain       Timer   <-- SCF
                               energy          per atom          (sec)   <-- SCF
------------------------------------------------------------------------ <-- SCF
Initial  -1.67880738E+003  0.00000000E+000                        31.15  <-- SCF
      1  -1.68484042E+003  2.50419347E+000   6.03303908E+000      32.10  <-- SCF
      2  -1.68484349E+003  2.50389027E+000   3.06672269E-003      34.33  <-- SCF
      3  -1.69023706E+003  9.26618770E+000   5.39357264E+000      38.50  <-- SCF
      4  -1.69025312E+003  9.26605474E+000   1.60593666E-002      40.68  <-- SCF
      5  -1.68026069E+003  3.19037998E+000  -9.99243000E+000      41.95  <-- SCF
      6  -1.68026518E+003  3.19007542E+000   4.48513367E-003      43.37  <-- SCF
      7  -1.68068021E+003  3.36251258E+000   4.15031495E-001      44.35  <-- SCF
      8  -1.68068351E+003  3.35274830E+000   3.30464438E-003      45.12  <-- SCF
      9  -1.68068344E+003  3.35944561E+000  -6.89633196E-005      45.55  <-- SCF
     10  -1.68068344E+003  3.36046083E+000  -1.71591985E-007      45.98  <-- SCF
     11  -1.68068344E+003  3.36055629E+000   2.14921777E-007      46.59  <-- SCF
------------------------------------------------------------------------ <-- SCF
 
Integrated Spin Density     =   -0.321989E-10 hbar/2
Integrated |Spin Density|   =    0.101848E-08 hbar/2
 
Final energy, E             =  -1680.678144515     eV
Final free energy (E-TS)    =  -1680.683442462     eV
(energies not corrected for finite basis set)
 
NB est. 0K energy (E-0.5TS)      =  -1680.680793488     eV
 

 ***************** Stress Tensor *****************
 *                                               *
 *          Cartesian components (GPa)           *
 * --------------------------------------------- *
 *             x             y             z     *
 *                                               *
 *  x      4.610286      0.018025      0.018025  *
 *  y      0.018025      4.610286      0.018025  *
 *  z      0.018025      0.018025      4.610286  *
 *                                               *
 *  Pressure:   -4.6103                          *
 *                                               *
 *************************************************
  
 +------------+-------------+-------------+-----------------+ <-- min LBFGS
 |    Step    |   lambda    |   F.delta'  |    enthalpy     | <-- min LBFGS
 +------------+-------------+-------------+-----------------+ <-- min LBFGS
 |  previous  |    0.000000 |    0.022969 |    -1680.716135 | <-- min LBFGS
 | trial step |    1.000000 |    0.020546 |    -1680.713257 | <-- min LBFGS
 |  line step |    9.478067 |   -0.022991 |    -1680.682235 | <-- min LBFGS
 +------------+-------------+-------------+-----------------+ <-- min LBFGS
  

--------------------------------------------------------------------------------
 LBFGS: improving iteration         1 with quad minimization (lambda=  5.000965)
--------------------------------------------------------------------------------

                           -------------------------------
                                      Unit Cell
                           -------------------------------
        Real Lattice(A)              Reciprocal Lattice(1/A)
     0.0001158     1.8370580     1.8370580       -1.710283416   1.710175603   1.710175603
     1.8370580     0.0001158     1.8370580        1.710175603  -1.710283416   1.710175603
     1.8370580     1.8370580     0.0001158        1.710175603   1.710175603  -1.710283416

                       Lattice parameters(A)       Cell Angles
                    a =      2.597992          alpha =   59.995829
                    b =      2.597992          beta  =   59.995829
                    c =      2.597992          gamma =   59.995829

                Current cell volume =            12.398167 A**3
                            density =             5.125435 amu/A**3
                                    =             8.510985 g/cm^3

------------------------------------------------------------------------ <-- SCF
SCF loop      Energy           Fermi           Energy gain       Timer   <-- SCF
                               energy          per atom          (sec)   <-- SCF
------------------------------------------------------------------------ <-- SCF
Initial  -1.68034980E+003  0.00000000E+000                        46.87  <-- SCF
      1  -1.68178662E+003  5.26300265E+000   1.43681691E+000      48.77  <-- SCF
      2  -1.68178702E+003  5.26299879E+000   4.04988058E-004      49.65  <-- SCF
      3  -1.68472485E+003  2.78785131E+000   2.93782980E+000      50.30  <-- SCF
      4  -1.68472685E+003  2.78767664E+000   2.00022449E-003      50.77  <-- SCF
      5  -1.68066472E+003  3.63964049E+000  -4.06213622E+000      51.35  <-- SCF
      6  -1.68066532E+003  3.63959082E+000   6.04106119E-004      51.82  <-- SCF
      7  -1.68071373E+003  3.72266352E+000   4.84101382E-002      54.10  <-- SCF
      8  -1.68071353E+003  3.68589529E+000  -2.04410542E-004      57.25  <-- SCF
      9  -1.68071357E+003  3.69011816E+000   4.75477375E-005      59.24  <-- SCF
     10  -1.68071358E+003  3.69058834E+000   6.29099653E-007      60.64  <-- SCF
     11  -1.68071358E+003  3.69088776E+000   7.92317133E-008      61.60  <-- SCF
------------------------------------------------------------------------ <-- SCF
 
Integrated Spin Density     =    0.394639E-11 hbar/2
Integrated |Spin Density|   =    0.163829E-09 hbar/2
 
Final energy, E             =  -1680.708277095     eV
Final free energy (E-TS)    =  -1680.713575311     eV
(energies not corrected for finite basis set)
 
NB est. 0K energy (E-0.5TS)      =  -1680.710926203     eV
 

 ***************** Stress Tensor *****************
 *                                               *
 *          Cartesian components (GPa)           *
 * --------------------------------------------- *
 *             x             y             z     *
 *                                               *
 *  x     -0.218859      0.006233      0.006233  *
 *  y      0.006233     -0.218859      0.006233  *
 *  z      0.006233      0.006233     -0.218859  *
 *                                               *
 *  Pressure:    0.2189                          *
 *                                               *
 *************************************************
  
 +------------+-------------+-------------+-----------------+ <-- min LBFGS
 |    Step    |   lambda    |   F.delta'  |    enthalpy     | <-- min LBFGS
 +------------+-------------+-------------+-----------------+ <-- min LBFGS
 |  previous  |    0.000000 |    0.022969 |    -1680.716135 | <-- min LBFGS
 | trial step |    1.000000 |    0.020546 |    -1680.713257 | <-- min LBFGS
 |  line step |    9.478067 |   -0.022991 |    -1680.682235 | <-- min LBFGS
 |  quad step |    5.000965 |    0.001061 |    -1680.707153 | <-- min LBFGS
 +------------+-------------+-------------+-----------------+ <-- min LBFGS
  
 LBFGS: finished iteration     1 with enthalpy= -1.68070715E+003 eV
  
 +-----------+-----------------+-----------------+------------+-----+ <-- LBFGS
 | Parameter |      value      |    tolerance    |    units   | OK? | <-- LBFGS
 +-----------+-----------------+-----------------+------------+-----+ <-- LBFGS
 |  dE/ion   |   8.982096E-003 |   2.000000E-005 |         eV | No  | <-- LBFGS
 |   Smax    |   2.188592E-001 |   1.000000E-001 |        GPa | No  | <-- LBFGS
 +-----------+-----------------+-----------------+------------+-----+ <-- LBFGS
  

================================================================================
 Starting LBFGS iteration          2 ...
================================================================================
  
 +------------+-------------+-------------+-----------------+ <-- min LBFGS
 |    Step    |   lambda    |   F.delta'  |    enthalpy     | <-- min LBFGS
 +------------+-------------+-------------+-----------------+ <-- min LBFGS
 |  previous  |    0.000000 |    0.001061 |    -1680.707153 | <-- min LBFGS
 +------------+-------------+-------------+-----------------+ <-- min LBFGS
  

--------------------------------------------------------------------------------
 LBFGS: starting iteration         2 with trial guess (lambda=  1.000000)
--------------------------------------------------------------------------------

                           -------------------------------
                                      Unit Cell
                           -------------------------------
        Real Lattice(A)              Reciprocal Lattice(1/A)
     0.0001040     1.8384802     1.8384802       -1.708943788   1.708847110   1.708847110
     1.8384802     0.0001040     1.8384802        1.708847110  -1.708943788   1.708847110
     1.8384802     1.8384802     0.0001040        1.708847110   1.708847110  -1.708943788

                       Lattice parameters(A)       Cell Angles
                    a =      2.600004          alpha =   59.996257
                    b =      2.600004          beta  =   59.996257
                    c =      2.600004          gamma =   59.996257

                Current cell volume =            12.427106 A**3
                            density =             5.113500 amu/A**3
                                    =             8.491166 g/cm^3

------------------------------------------------------------------------ <-- SCF
SCF loop      Energy           Fermi           Energy gain       Timer   <-- SCF
                               energy          per atom          (sec)   <-- SCF
------------------------------------------------------------------------ <-- SCF
Initial  -1.68070066E+003  0.00000000E+000                        62.90  <-- SCF
      1  -1.68072165E+003  3.63709027E+000   2.09892176E-002      67.05  <-- SCF
      2  -1.68072166E+003  3.63709023E+000   5.13471471E-006      68.56  <-- SCF
      3  -1.68073099E+003  3.74494294E+000   9.33259366E-003      70.00  <-- SCF
      4  -1.68071743E+003  3.66865861E+000  -1.35566790E-002      71.89  <-- SCF
      5  -1.68071796E+003  3.67317833E+000   5.32474136E-004      73.58  <-- SCF
      6  -1.68071796E+003  3.67293919E+000  -6.35238855E-008      74.28  <-- SCF
      7  -1.68071796E+003  3.67286866E+000   6.81209401E-008      74.81  <-- SCF
      8  -1.68071796E+003  3.67283023E+000   3.20533190E-009      75.87  <-- SCF
------------------------------------------------------------------------ <-- SCF
 
Integrated Spin Density     =   -0.602282E-12 hbar/2
Integrated |Spin Density|   =    0.112600E-09 hbar/2
 
Final energy, E             =  -1680.712665440     eV
Final free energy (E-TS)    =  -1680.717963643     eV
(energies not corrected for finite basis set)
 
NB est. 0K energy (E-0.5TS)      =  -1680.715314541     eV
 

 ***************** Stress Tensor *****************
 *                                               *
 *          Cartesian components (GPa)           *
 * --------------------------------------------- *
 *             x             y             z     *
 *                                               *
 *  x     -0.482025      0.004944      0.004944  *
 *  y      0.004944     -0.482025      0.004944  *
 *  z      0.004944      0.004944     -0.482025  *
 *                                               *
 *  Pressure:    0.4820                          *
 *                                               *
 *************************************************
  
 +------------+-------------+-------------+-----------------+ <-- min LBFGS
 |    Step    |   lambda    |   F.delta'  |    enthalpy     | <-- min LBFGS
 +------------+-------------+-------------+-----------------+ <-- min LBFGS
 |  previous  |    0.000000 |    0.001061 |    -1680.707153 | <-- min LBFGS
 | trial step |    1.000000 |    0.002340 |    -1680.705866 | <-- min LBFGS
 +------------+-------------+-------------+-----------------+ <-- min LBFGS
  

--------------------------------------------------------------------------------
 LBFGS: improving iteration         2 with line minimization (lambda= -0.829506)
--------------------------------------------------------------------------------

                           -------------------------------
                                      Unit Cell
                           -------------------------------
        Real Lattice(A)              Reciprocal Lattice(1/A)
     0.0001256     1.8358782     1.8358782       -1.711396240   1.711279165   1.711279165
     1.8358782     0.0001256     1.8358782        1.711279165  -1.711396240   1.711279165
     1.8358782     1.8358782     0.0001256        1.711279165   1.711279165  -1.711396240

                       Lattice parameters(A)       Cell Angles
                    a =      2.596324          alpha =   59.995474
                    b =      2.596324          beta  =   59.995474
                    c =      2.596324          gamma =   59.995474

                Current cell volume =            12.374197 A**3
                            density =             5.135364 amu/A**3
                                    =             8.527472 g/cm^3

------------------------------------------------------------------------ <-- SCF
SCF loop      Energy           Fermi           Energy gain       Timer   <-- SCF
                               energy          per atom          (sec)   <-- SCF
------------------------------------------------------------------------ <-- SCF
Initial  -1.68070978E+003  0.00000000E+000                        76.21  <-- SCF
      1  -1.68072897E+003  3.76794495E+000   1.91927221E-002      77.22  <-- SCF
      2  -1.68072897E+003  3.76794485E+000   3.15203441E-006      77.86  <-- SCF
      3  -1.68075516E+003  3.59157022E+000   2.61864646E-002      78.87  <-- SCF
      4  -1.68071742E+003  3.71150642E+000  -3.77363162E-002      79.54  <-- SCF
      5  -1.68071875E+003  3.70525693E+000   1.32947612E-003      80.16  <-- SCF
      6  -1.68071875E+003  3.70595808E+000   6.04906145E-007      80.78  <-- SCF
      7  -1.68071875E+003  3.70565457E+000  -1.01018419E-007      81.23  <-- SCF
      8  -1.68071875E+003  3.70569915E+000   4.00212118E-009      81.65  <-- SCF
------------------------------------------------------------------------ <-- SCF
 
Integrated Spin Density     =   -0.214340E-12 hbar/2
Integrated |Spin Density|   =    0.338862E-09 hbar/2
 
Final energy, E             =  -1680.713455392     eV
Final free energy (E-TS)    =  -1680.718753629     eV
(energies not corrected for finite basis set)
 
NB est. 0K energy (E-0.5TS)      =  -1680.716104510     eV
 

 ***************** Stress Tensor *****************
 *                                               *
 *          Cartesian components (GPa)           *
 * --------------------------------------------- *
 *             x             y             z     *
 *                                               *
 *  x     -0.912481      0.007106      0.007106  *
 *  y      0.007106     -0.912481      0.007106  *
 *  z      0.007106      0.007106     -0.912481  *
 *                                               *
 *  Pressure:    0.9125                          *
 *                                               *
 *************************************************
  
 +------------+-------------+-------------+-----------------+ <-- min LBFGS
 |    Step    |   lambda    |   F.delta'  |    enthalpy     | <-- min LBFGS
 +------------+-------------+-------------+-----------------+ <-- min LBFGS
 |  previous  |    0.000000 |    0.001061 |    -1680.707153 | <-- min LBFGS
 | trial step |    1.000000 |    0.002340 |    -1680.705866 | <-- min LBFGS
 |  line step |   -0.829506 |    0.004417 |    -1680.707059 | <-- min LBFGS
 +------------+-------------+-------------+-----------------+ <-- min LBFGS
  

--------------------------------------------------------------------------------
 LBFGS: improving iteration         2 with quad minimization (lambda=  0.875541)
--------------------------------------------------------------------------------

                           -------------------------------
                                      Unit Cell
                           -------------------------------
        Real Lattice(A)              Reciprocal Lattice(1/A)
     0.0001055     1.8383032     1.8383032       -1.709110403   1.709012341   1.709012341
     1.8383032     0.0001055     1.8383032        1.709012341  -1.709110403   1.709012341
     1.8383032     1.8383032     0.0001055        1.709012341   1.709012341  -1.709110403

                       Lattice parameters(A)       Cell Angles
                    a =      2.599753          alpha =   59.996204
                    b =      2.599753          beta  =   59.996204
                    c =      2.599753          gamma =   59.996204

                Current cell volume =            12.423502 A**3
                            density =             5.114983 amu/A**3
                                    =             8.493629 g/cm^3

------------------------------------------------------------------------ <-- SCF
SCF loop      Energy           Fermi           Energy gain       Timer   <-- SCF
                               energy          per atom          (sec)   <-- SCF
------------------------------------------------------------------------ <-- SCF
Initial  -1.68069913E+003  0.00000000E+000                        81.89  <-- SCF
      1  -1.68072900E+003  3.61550764E+000   2.98684251E-002      82.59  <-- SCF
      2  -1.68072901E+003  3.61550753E+000   7.15533231E-006      84.33  <-- SCF
      3  -1.68075477E+003  3.79840956E+000   2.57636877E-002      85.90  <-- SCF
      4  -1.68071723E+003  3.66765202E+000  -3.75407765E-002      87.31  <-- SCF
      5  -1.68071874E+003  3.67560710E+000   1.51106283E-003      89.44  <-- SCF
      6  -1.68071874E+003  3.67519308E+000  -3.46579170E-007      90.39  <-- SCF
      7  -1.68071874E+003  3.67509181E+000   1.06239409E-007      91.40  <-- SCF
      8  -1.68071874E+003  3.67507350E+000   5.21209627E-009      92.44  <-- SCF
------------------------------------------------------------------------ <-- SCF
 
Integrated Spin Density     =   -0.288651E-13 hbar/2
Integrated |Spin Density|   =    0.579595E-09 hbar/2
 
Final energy, E             =  -1680.713443994     eV
Final free energy (E-TS)    =  -1680.718742201     eV
(energies not corrected for finite basis set)
 
NB est. 0K energy (E-0.5TS)      =  -1680.716093098     eV
 

 ***************** Stress Tensor *****************
 *                                               *
 *          Cartesian components (GPa)           *
 * --------------------------------------------- *
 *             x             y             z     *
 *                                               *
 *  x     -0.562264      0.004665      0.004665  *
 *  y      0.004665     -0.562264      0.004665  *
 *  z      0.004665      0.004665     -0.562264  *
 *                                               *
 *  Pressure:    0.5623                          *
 *                                               *
 *************************************************
  
 +------------+-------------+-------------+-----------------+ <-- min LBFGS
 |    Step    |   lambda    |   F.delta'  |    enthalpy     | <-- min LBFGS
 +------------+-------------+-------------+-----------------+ <-- min LBFGS
 |  previous  |    0.000000 |    0.001061 |    -1680.707153 | <-- min LBFGS
 | trial step |    1.000000 |    0.002340 |    -1680.705866 | <-- min LBFGS
 |  line step |   -0.829506 |    0.004417 |    -1680.707059 | <-- min LBFGS
 |  quad step |    0.875541 |    0.002729 |    -1680.705854 | <-- min LBFGS
 +------------+-------------+-------------+-----------------+ <-- min LBFGS
  
 LBFGS: updated estimated bulk modulus =  93.76938 GPa
 LBFGS: finished iteration     2 with enthalpy= -1.68070585E+003 eV
  
 +-----------+-----------------+-----------------+------------+-----+ <-- LBFGS
 | Parameter |      value      |    tolerance    |    units   | OK? | <-- LBFGS
 +-----------+-----------------+-----------------+------------+-----+ <-- LBFGS
 |  dE/ion   |   1.298716E-003 |   2.000000E-005 |         eV | No  | <-- LBFGS
 |   Smax    |   5.622638E-001 |   1.000000E-001 |        GPa | No  | <-- LBFGS
 +-----------+-----------------+-----------------+------------+-----+ <-- LBFGS
  

================================================================================
 Starting LBFGS iteration          3 ...
================================================================================
  
 +------------+-------------+-------------+-----------------+ <-- min LBFGS
 |    Step    |   lambda    |   F.delta'  |    enthalpy     | <-- min LBFGS
 +------------+-------------+-------------+-----------------+ <-- min LBFGS
 |  previous  |    0.000000 |    0.002729 |    -1680.705854 | <-- min LBFGS
 +------------+-------------+-------------+-----------------+ <-- min LBFGS
  

--------------------------------------------------------------------------------
 LBFGS: starting iteration         3 with trial guess (lambda=  1.000000)
--------------------------------------------------------------------------------

                           -------------------------------
                                      Unit Cell
                           -------------------------------
        Real Lattice(A)              Reciprocal Lattice(1/A)
     0.0000463     1.8418259     1.8418259       -1.705759056   1.705716150   1.705716150
     1.8418259     0.0000463     1.8418259        1.705716150  -1.705759056   1.705716150
     1.8418259     1.8418259     0.0000463        1.705716150   1.705716150  -1.705759056

                       Lattice parameters(A)       Cell Angles
                    a =      2.604735          alpha =   59.998336
                    b =      2.604735          beta  =   59.998336
                    c =      2.604735          gamma =   59.998336

                Current cell volume =            12.495664 A**3
                            density =             5.085444 amu/A**3
                                    =             8.444579 g/cm^3

------------------------------------------------------------------------ <-- SCF
SCF loop      Energy           Fermi           Energy gain       Timer   <-- SCF
                               energy          per atom          (sec)   <-- SCF
------------------------------------------------------------------------ <-- SCF
Initial  -1.68068991E+003  0.00000000E+000                        92.82  <-- SCF
      1  -1.68072418E+003  3.54458938E+000   3.42660715E-002      94.12  <-- SCF
      2  -1.68072418E+003  3.54458914E+000   6.49518379E-006      94.82  <-- SCF
      3  -1.68077785E+003  3.82250865E+000   5.36722284E-002      95.98  <-- SCF
      4  -1.68069951E+003  3.61857628E+000  -7.83426942E-002      97.75  <-- SCF
      5  -1.68070284E+003  3.63129968E+000   3.32402593E-003      99.35  <-- SCF
      6  -1.68070283E+003  3.63067307E+000  -7.29537059E-007      99.97  <-- SCF
      7  -1.68070283E+003  3.63062949E+000   1.99502038E-007     100.59  <-- SCF
      8  -1.68070283E+003  3.63060433E+000   8.11097075E-009     101.26  <-- SCF
------------------------------------------------------------------------ <-- SCF
 
Integrated Spin Density     =   -0.366332E-14 hbar/2
Integrated |Spin Density|   =    0.796387E-09 hbar/2
 
Final energy, E             =  -1680.697536672     eV
Final free energy (E-TS)    =  -1680.702834805     eV
(energies not corrected for finite basis set)
 
NB est. 0K energy (E-0.5TS)      =  -1680.700185739     eV
 

 ***************** Stress Tensor *****************
 *                                               *
 *          Cartesian components (GPa)           *
 * --------------------------------------------- *
 *             x             y             z     *
 *                                               *
 *  x      1.125752     -0.001975     -0.001975  *
 *  y     -0.001975      1.125752     -0.001975  *
 *  z     -0.001975     -0.001975      1.125752  *
 *                                               *
 *  Pressure:   -1.1258                          *
 *                                               *
 *************************************************
  
 +------------+-------------+-------------+-----------------+ <-- min LBFGS
 |    Step    |   lambda    |   F.delta'  |    enthalpy     | <-- min LBFGS
 +------------+-------------+-------------+-----------------+ <-- min LBFGS
 |  previous  |    0.000000 |    0.002729 |    -1680.705854 | <-- min LBFGS
 | trial step |    1.000000 |   -0.005484 |    -1680.705726 | <-- min LBFGS
 +------------+-------------+-------------+-----------------+ <-- min LBFGS
  

--------------------------------------------------------------------------------
 LBFGS: improving iteration         3 with line minimization (lambda=  0.332259)
--------------------------------------------------------------------------------

                           -------------------------------
                                      Unit Cell
                           -------------------------------
        Real Lattice(A)              Reciprocal Lattice(1/A)
     0.0000858     1.8394736     1.8394736       -1.707995430   1.707915740   1.707915740
     1.8394736     0.0000858     1.8394736        1.707915740  -1.707995430   1.707915740
     1.8394736     1.8394736     0.0000858        1.707915740   1.707915740  -1.707995430

                       Lattice parameters(A)       Cell Angles
                    a =      2.601409          alpha =   59.996913
                    b =      2.601409          beta  =   59.996913
                    c =      2.601409          gamma =   59.996913

                Current cell volume =            12.447447 A**3
                            density =             5.105143 amu/A**3
                                    =             8.477290 g/cm^3

------------------------------------------------------------------------ <-- SCF
SCF loop      Energy           Fermi           Energy gain       Timer   <-- SCF
                               energy          per atom          (sec)   <-- SCF
------------------------------------------------------------------------ <-- SCF
Initial  -1.68070486E+003  0.00000000E+000                       101.53  <-- SCF
      1  -1.68072309E+003  3.72040652E+000   1.82287307E-002     102.42  <-- SCF
      2  -1.68072309E+003  3.72040642E+000   2.71917945E-006     102.85  <-- SCF
      3  -1.68074780E+003  3.54950955E+000   2.47037576E-002     104.21  <-- SCF
      4  -1.68071226E+003  3.66602555E+000  -3.55378264E-002     104.95  <-- SCF
      5  -1.68071354E+003  3.65981032E+000   1.27727015E-003     105.52  <-- SCF
      6  -1.68071354E+003  3.66055080E+000   5.93038799E-007     105.89  <-- SCF
      7  -1.68071354E+003  3.66020226E+000  -1.41013142E-007     106.24  <-- SCF
      8  -1.68071354E+003  3.66025030E+000   5.43541382E-009     106.60  <-- SCF
------------------------------------------------------------------------ <-- SCF
 
Integrated Spin Density     =    0.100108E-13 hbar/2
Integrated |Spin Density|   =    0.298872E-09 hbar/2
 
Final energy, E             =  -1680.708239808     eV
Final free energy (E-TS)    =  -1680.713537989     eV
(energies not corrected for finite basis set)
 
NB est. 0K energy (E-0.5TS)      =  -1680.710888898     eV
 

 ***************** Stress Tensor *****************
 *                                               *
 *          Cartesian components (GPa)           *
 * --------------------------------------------- *
 *             x             y             z     *
 *                                               *
 *  x      0.003009      0.002766      0.002766  *
 *  y      0.002766      0.003009      0.002766  *
 *  z      0.002766      0.002766      0.003009  *
 *                                               *
 *  Pressure:   -0.0030                          *
 *                                               *
 *************************************************
  
 +------------+-------------+-------------+-----------------+ <-- min LBFGS
 |    Step    |   lambda    |   F.delta'  |    enthalpy     | <-- min LBFGS
 +------------+-------------+-------------+-----------------+ <-- min LBFGS
 |  previous  |    0.000000 |    0.002729 |    -1680.705854 | <-- min LBFGS
 | trial step |    1.000000 |   -0.005484 |    -1680.705726 | <-- min LBFGS
 |  line step |    0.332259 |   -0.000014 |    -1680.705896 | <-- min LBFGS
 +------------+-------------+-------------+-----------------+ <-- min LBFGS
  
 LBFGS: finished iteration     3 with enthalpy= -1.68070590E+003 eV
  
 +-----------+-----------------+-----------------+------------+-----+ <-- LBFGS
 | Parameter |      value      |    tolerance    |    units   | OK? | <-- LBFGS
 +-----------+-----------------+-----------------+------------+-----+ <-- LBFGS
 |  dE/ion   |   4.174449E-005 |   2.000000E-005 |         eV | No  | <-- LBFGS
 |   Smax    |   3.008591E-003 |   1.000000E-001 |        GPa | Yes | <-- LBFGS
 +-----------+-----------------+-----------------+------------+-----+ <-- LBFGS
  

================================================================================
 Starting LBFGS iteration          4 ...
================================================================================
  
 +------------+-------------+-------------+-----------------+ <-- min LBFGS
 |    Step    |   lambda    |   F.delta'  |    enthalpy     | <-- min LBFGS
 +------------+-------------+-------------+-----------------+ <-- min LBFGS
 |  previous  |    0.000000 |    0.000022 |    -1680.705896 | <-- min LBFGS
 +------------+-------------+-------------+-----------------+ <-- min LBFGS
  

--------------------------------------------------------------------------------
 LBFGS: starting iteration         4 with trial guess (lambda=  1.000000)
--------------------------------------------------------------------------------

                           -------------------------------
                                      Unit Cell
                           -------------------------------
        Real Lattice(A)              Reciprocal Lattice(1/A)
     0.0000508     1.8394498     1.8394498       -1.707968769   1.707921600   1.707921600
     1.8394498     0.0000508     1.8394498        1.707921600  -1.707968769   1.707921600
     1.8394498     1.8394498     0.0000508        1.707921600   1.707921600  -1.707968769

                       Lattice parameters(A)       Cell Angles
                    a =      2.601375          alpha =   59.998173
                    b =      2.601375          beta  =   59.998173
                    c =      2.601375          gamma =   59.998173

                Current cell volume =            12.447319 A**3
                            density =             5.105196 amu/A**3
                                    =             8.477377 g/cm^3

------------------------------------------------------------------------ <-- SCF
SCF loop      Energy           Fermi           Energy gain       Timer   <-- SCF
                               energy          per atom          (sec)   <-- SCF
------------------------------------------------------------------------ <-- SCF
Initial  -1.68070827E+003  0.00000000E+000                       106.86  <-- SCF
      1  -1.68071357E+003  3.66049153E+000   5.29843382E-003     107.24  <-- SCF
      2  -1.68071357E+003  3.66049153E+000   6.90060897E-009     107.62  <-- SCF
      3  -1.68071357E+003  3.66004541E+000   1.52752104E-007     108.95  <-- SCF
      4  -1.68071357E+003  3.66035698E+000  -2.30348476E-007     109.72  <-- SCF
      5  -1.68071357E+003  3.66033625E+000   8.83854126E-009     110.60  <-- SCF
------------------------------------------------------------------------ <-- SCF
 
Integrated Spin Density     =    0.459839E-14 hbar/2
Integrated |Spin Density|   =    0.538900E-11 hbar/2
 
Final energy, E             =  -1680.708267855     eV
Final free energy (E-TS)    =  -1680.713566036     eV
(energies not corrected for finite basis set)
 
NB est. 0K energy (E-0.5TS)      =  -1680.710916946     eV
 

 ***************** Stress Tensor *****************
 *                                               *
 *          Cartesian components (GPa)           *
 * --------------------------------------------- *
 *             x             y             z     *
 *                                               *
 *  x     -0.003407     -0.001298     -0.001298  *
 *  y     -0.001298     -0.003407     -0.001298  *
 *  z     -0.001298     -0.001298     -0.003407  *
 *                                               *
 *  Pressure:    0.0034                          *
 *                                               *
 *************************************************
  
 +------------+-------------+-------------+-----------------+ <-- min LBFGS
 |    Step    |   lambda    |   F.delta'  |    enthalpy     | <-- min LBFGS
 +------------+-------------+-------------+-----------------+ <-- min LBFGS
 |  previous  |    0.000000 |    0.000022 |    -1680.705896 | <-- min LBFGS
 | trial step |    1.000000 |   -0.000013 |    -1680.705896 | <-- min LBFGS
 +------------+-------------+-------------+-----------------+ <-- min LBFGS
  
 LBFGS: finished iteration     4 with enthalpy= -1.68070590E+003 eV
  
 +-----------+-----------------+-----------------+------------+-----+ <-- LBFGS
 | Parameter |      value      |    tolerance    |    units   | OK? | <-- LBFGS
 +-----------+-----------------+-----------------+------------+-----+ <-- LBFGS
 |  dE/ion   |   5.372382E-009 |   2.000000E-005 |         eV | Yes | <-- LBFGS
 |   Smax    |   3.406902E-003 |   1.000000E-001 |        GPa | Yes | <-- LBFGS
 +-----------+-----------------+-----------------+------------+-----+ <-- LBFGS
  
 LBFGS: Geometry optimization completed successfully.

================================================================================
 LBFGS: Final Configuration:
================================================================================

                           -------------------------------
                                      Unit Cell
                           -------------------------------
        Real Lattice(A)              Reciprocal Lattice(1/A)
     0.0000508     1.8394498     1.8394498       -1.707968769   1.707921600   1.707921600
     1.8394498     0.0000508     1.8394498        1.707921600  -1.707968769   1.707921600
     1.8394498     1.8394498     0.0000508        1.707921600   1.707921600  -1.707968769

                       Lattice parameters(A)       Cell Angles
                    a =      2.601375          alpha =   59.998173
                    b =      2.601375          beta  =   59.998173
                    c =      2.601375          gamma =   59.998173

                Current cell volume =            12.447319 A**3
                            density =             5.105196 amu/A**3
                                    =             8.477377 g/cm^3

 LBFGS: Final Enthalpy     = -1.68070590E+003 eV
 LBFGS: Final bulk modulus =     283.54520 GPa

 ************************************** Forces **************************************
 *                                                                                  *
 *                           Cartesian components (eV/A)                            *
 * -------------------------------------------------------------------------------- *
 *                         x                    y                    z              *
 *                                                                                  *
 * Cu              1      0.00000              0.00000              0.00000         *
 *                                                                                  *
 ************************************************************************************

 ***************** Stress Tensor *****************
 *                                               *
 *          Cartesian components (GPa)           *
 * --------------------------------------------- *
 *             x             y             z     *
 *                                               *
 *  x     -0.003407     -0.001298     -0.001298  *
 *  y     -0.001298     -0.003407     -0.001298  *
 *  z     -0.001298     -0.001298     -0.003407  *
 *                                               *
 *  Pressure:    0.0034                          *
 *                                               *
 *************************************************

 Pseudo atomic calculation performed for Cu 3d10 4s1

 Converged in 48 iterations to a total energy of -1676.3539 eV
Charge spilling parameter for spin component 1 = 0.08%
Charge spilling parameter for spin component 2 = 0.08%

                   Orbital Populations                  
  ---------------------------------------------------------------
     Ion    Atom   Orbital              Up        Down      Spin
  ---------------------------------------------------------------
     Cu     1      Dzz                  0.979     0.979    -0.000
     Cu     1      Dzy                  0.969     0.969    -0.000
     Cu     1      Dzx                  0.969     0.969    -0.000
     Cu     1      Dxx-yy               0.979     0.979     0.000
     Cu     1      Dxy                  0.969     0.969    -0.000
     Cu     1      S                    0.364     0.364     0.000
     Cu     1      Px                   0.091     0.091     0.000
     Cu     1      Py                   0.091     0.091     0.000
     Cu     1      Pz                   0.091     0.091     0.000
  ---------------------------------------------------------------
                           Total:       5.500     5.500     0.000
  ---------------------------------------------------------------

     Atomic Populations (Mulliken)
     -----------------------------
Species          Ion Spin      s       p       d       f      Total   Charge(e)   Spin(hbar/2)
==============================================================================================
  Cu              1   up:     0.364   0.272   4.864   0.000   5.500     0.000        0.000
                  1   dn:     0.364   0.272   4.864   0.000   5.500
==============================================================================================

                 Bond                   Population        Spin       Length (A)
================================================================================
================================================================================


Writing analysis data to bulk_cu_5x5x5-000000.castep_bin

Writing model to bulk_cu_5x5x5-000000.check
 
 A BibTeX formatted list of references used in this run has been written to 
 bulk_cu_5x5x5-000000.bib
 
Initialisation time =      4.52 s
Calculation time    =    107.63 s
Finalisation time   =      0.23 s
Total time          =    112.38 s
Peak Memory Use     = 806372 kB
